LAMMPS data file via write_data, version 12 Dec 2018, timestep = 66

144 atoms
3 atom types

0.0000000000000000e+00 9.0000000000000000e+01 xlo xhi
0.0000000000000000e+00 9.0000000000000000e+01 ylo yhi
-2.2543935086463924e+00 5.3165993508646515e+01 zlo zhi
0.0000000000000000e+00 0.0000000000000000e+00 0.0000000000000000e+00 xy xz yz

Masses

1 12
2 1.008
3 18.9984

Atoms # charge

1 1 -4.9122620438041620e-01 3.3394512604295108e+00 4.5693353323720949e+00 5.2967644454354613e+01 0 0 -1
2 1 6.1260291440285397e-01 3.8828849901360769e+00 4.6442368880993730e+00 -9.8814495533834146e-01 0 0 0
3 3 -2.1063090077375601e-01 5.2318378937110115e+00 4.6611520631696113e+00 -9.7791851817743014e-01 0 0 0
4 1 -4.9122662127927963e-01 3.3394511963281688e+00 3.4306667922186764e+00 -1.4355940111615650e-01 0 0 0
5 1 6.1260390699834510e-01 3.8828853880071956e+00 3.3557655661363559e+00 1.3210382424213973e+00 0 0 0
6 3 -3.7997455722386531e-01 3.5076180550107114e+00 2.1945546765861574e+00 1.8878111262850603e+00 0 0 0
7 3 -3.7997401272011866e-01 3.5076165075870684e+00 5.8054473043391583e+00 -4.2137168279950798e-01 0 0 0
8 1 -4.9122605482950393e-01 3.3394498935545411e+00 4.5693354138253355e+00 2.1656233628232919e+00 0 0 0
9 1 6.1259994190521438e-01 3.8828835063112552e+00 4.6442359748939310e+00 3.6302213348854875e+00 0 0 0
10 3 -3.7997252802078557e-01 3.5076148683519395e+00 5.8054460246574777e+00 4.1969946640825562e+00 0 0 0
11 3 -2.1063129540807493e-01 5.2318381807362968e+00 3.3388523468580358e+00 1.3312648786906265e+00 0 0 0
12 1 -4.9122184725868856e-01 3.3394488988020687e+00 3.4306652871310406e+00 4.4748056260565612e+00 0 0 0
13 1 6.1259941044229782e-01 3.8828825493005370e+00 3.3557634513118044e+00 5.9394031670075780e+00 0 0 0
14 3 -2.1062939633206088e-01 5.2318353805836511e+00 3.3388466447605865e+00 5.9496296904436736e+00 0 0 0
15 3 -2.1062986725330057e-01 5.2318363527876413e+00 4.6611506265110574e+00 3.6404483555557063e+00 0 0 0
16 3 -3.7997285723921587e-01 3.5076125156799884e+00 2.1945533745876058e+00 6.5061760779688580e+00 0 0 0
17 2 1.9505889061725706e-01 2.2079426042913224e+00 4.5468865889987100e+00 5.2979681873766090e+01 0 0 -1
18 2 2.7416968384525536e-01 3.6177517076844259e+00 5.5404346105872300e+00 5.2452434966119981e+01 0 0 -1
19 2 2.7416953881159811e-01 3.6177469655830929e+00 2.4595654272274770e+00 -6.5876729296493219e-01 0 0 0
20 2 1.9505860235548869e-01 2.2079426712801968e+00 3.4531212873007728e+00 -1.3152100433042735e-01 0 0 0
21 2 1.9505866171518410e-01 2.2079414987481916e+00 4.5468793613851695e+00 2.1776615997141300e+00 0 0 0
22 2 2.7416957247269103e-01 3.6177452554858345e+00 5.5404367380069512e+00 1.6504149551813794e+00 0 0 0
23 2 1.9505826833466766e-01 2.2079402849554031e+00 3.4531189330465639e+00 4.4868432504499705e+00 0 0 0
24 2 2.7416889487772805e-01 3.6177459360588298e+00 2.4595642368784891e+00 3.9595977297004992e+00 0 0 0
25 1 -4.9123013282395422e-01 3.3394504436919092e+00 4.5693344812253445e+00 6.7839885199846925e+00 0 0 0
26 1 6.1261354708413029e-01 3.8828859484896592e+00 4.6442353527716378e+00 8.2485857983057720e+00 0 0 0
27 3 -2.1063417174312141e-01 5.2318387622152747e+00 4.6611476733989639e+00 8.2588106756479824e+00 0 0 0
28 1 -4.9122966372310056e-01 3.3394506264090271e+00 3.4306660719799864e+00 9.0931721168057997e+00 0 0 0
29 1 6.1259678955667296e-01 3.8828856885494254e+00 3.3557652446366535e+00 1.0557769580893149e+01 0 0 0
30 3 -3.7997170957299031e-01 3.5076200509958535e+00 2.1945536556932486e+00 1.1124542278384038e+01 0 0 0
31 3 -3.7997724368961255e-01 3.5076201736844959e+00 5.8054464882120822e+00 8.8153589338982581e+00 0 0 0
32 1 -4.9122042312373865e-01 3.3394496127316740e+00 4.5693339656340681e+00 1.1402355557572239e+01 0 0 0
33 1 6.1259844965354249e-01 3.8828834315566083e+00 4.6442348385082255e+00 1.2866953201995157e+01 0 0 0
34 3 -3.7997296111888323e-01 3.5076154108838233e+00 5.8054453174399860e+00 1.3433726286671716e+01 0 0 0
35 3 -2.1062875525948316e-01 5.2318384804584088e+00 3.3388534246086370e+00 1.0567995319679337e+01 0 0 0
36 1 -4.9122747525520682e-01 3.3394486493883555e+00 3.4306646085466710e+00 1.3711538287358168e+01 0 0 0
37 1 6.1260695799898723e-01 3.8828826417489934e+00 3.3557627113364741e+00 1.5176136108707469e+01 0 0 0
38 3 -2.1063235905185679e-01 5.2318352381829420e+00 3.3388459471268122e+00 1.5186362426454826e+01 0 0 0
39 3 -2.1062965353428303e-01 5.2318363272303694e+00 4.6611490342915838e+00 1.2877179886851755e+01 0 0 0
40 3 -3.7997512754023921e-01 3.5076123464911744e+00 2.1945529826536334e+00 1.5742909266002760e+01 0 0 0
41 2 1.9505907572101711e-01 2.2079419704948071e+00 4.5468813225672555e+00 6.7960268523020311e+00 0 0 0
42 2 2.7417010878487980e-01 3.6177477485932159e+00 5.5404350860643232e+00 6.2687797986556841e+00 0 0 0
43 2 2.7416947253368745e-01 3.6177453481542168e+00 2.4595643741817810e+00 8.5779645839169198e+00 0 0 0
44 2 1.9505862145084560e-01 2.2079422107681288e+00 3.4531212029399372e+00 9.1052105458822830e+00 0 0 0
45 2 1.9505773469950463e-01 2.2079411582534010e+00 4.5468773055667242e+00 1.1414393955799710e+01 0 0 0
46 2 2.7416877044431032e-01 3.6177444425339198e+00 5.5404358855313030e+00 1.0887147812868550e+01 0 0 0
47 2 1.9505871656253720e-01 2.2079401916822592e+00 3.4531190089111652e+00 1.3723576460525594e+01 0 0 0
48 2 2.7416939983762512e-01 3.6177447551525308e+00 2.4595634477377004e+00 1.3196330259004073e+01 0 0 0
49 1 -4.9122606057312895e-01 3.3394506440023490e+00 4.5693341756047401e+00 1.6020721158571348e+01 0 0 0
50 1 6.1260070369367869e-01 3.8828855091289500e+00 4.6442348280900898e+00 1.7485318663206023e+01 0 0 0
51 3 -2.1062943782120824e-01 5.2318384584448188e+00 4.6611487632419113e+00 1.7495544407309019e+01 0 0 0
52 1 -4.9122736137013928e-01 3.3394509789583298e+00 3.4306645733944565e+00 1.8329903722065620e+01 0 0 0
53 1 6.1260824962271787e-01 3.8828851675331015e+00 3.3557638888522945e+00 1.9794501231163480e+01 0 0 0
54 3 -3.7997571882983550e-01 3.5076181189075655e+00 2.1945530790744234e+00 2.0361274326434614e+01 0 0 0
55 3 -3.7997280215014451e-01 3.5076180869002607e+00 5.8054453897488658e+00 1.8052092112327717e+01 0 0 0
56 1 -4.9122778616976587e-01 3.3394498547343661e+00 4.5693336185499716e+00 2.0639086389085069e+01 0 0 0
57 1 6.1259892679144357e-01 3.8828826643820089e+00 4.6442340994789202e+00 2.2103684621909938e+01 0 0 0
58 3 -3.7997326162458345e-01 3.5076128223719167e+00 5.8054437445189899e+00 2.2670458410631834e+01 0 0 0
59 3 -2.1063255927612640e-01 5.2318379739887435e+00 3.3388506234275326e+00 1.9804727587142420e+01 0 0 0
60 1 -4.9122227483142916e-01 3.3394492258767658e+00 3.4306625650146398e+00 2.2948268593050969e+01 0 0 0
61 1 6.1259905256204772e-01 3.8828809533380273e+00 3.3557620631648502e+00 2.4412867257513874e+01 0 0 0
62 3 -2.1063049265188905e-01 5.2318336428266781e+00 3.3388421922807225e+00 2.4423095193279600e+01 0 0 0
63 3 -2.1063006908480947e-01 5.2318354679696633e+00 4.6611500149847824e+00 2.2113911981018745e+01 0 0 0
64 3 -3.7997323531396288e-01 3.5076077141198398e+00 2.1945537700078126e+00 2.4979641413506815e+01 0 0 0
65 2 1.9505873353739306e-01 2.2079421677610056e+00 4.5468815025329565e+00 1.6032759323024443e+01 0 0 0
66 2 2.7416938377009920e-01 3.6177485775248184e+00 5.5404345655188116e+00 1.5505512583684771e+01 0 0 0
67 2 2.7417000124520430e-01 3.6177468821191185e+00 2.4595632733318435e+00 1.7814695654859246e+01 0 0 0
68 2 1.9505890194262043e-01 2.2079424821877103e+00 3.4531189167086169e+00 1.8341942181734805e+01 0 0 0
69 2 1.9505860416442244e-01 2.2079413010375362e+00 4.5468794864949400e+00 2.0651122814335970e+01 0 0 0
70 2 2.7416945164892420e-01 3.6177472228718028e+00 5.5404348833211667e+00 2.0123879122937169e+01 0 0 0
71 2 1.9505823289557694e-01 2.2079407028338531e+00 3.4531146569313225e+00 2.2960304226743975e+01 0 0 0
72 2 2.7416910914930720e-01 3.6177481999832271e+00 2.4595621237627108e+00 2.2433060561818905e+01 0 0 0
73 1 -4.9122519054426250e-01 3.3394511297301044e+00 4.5693352576177872e+00 2.5257450840699512e+01 0 0 0
74 1 6.1260332541431128e-01 3.8828849473727813e+00 4.6442366414613723e+00 2.6722048428041482e+01 0 0 0
75 3 -2.1063126764704637e-01 5.2318377965259559e+00 4.6611515025572308e+00 2.6732274906231538e+01 0 0 0
76 1 -4.9122883221065078e-01 3.3394510571676856e+00 3.4306666482356003e+00 2.7566634172267335e+01 0 0 0
77 1 6.1260786477796147e-01 3.8828853418803151e+00 3.3557655581787698e+00 2.9031231806900347e+01 0 0 0
78 3 -3.7997559618759286e-01 3.5076181441983350e+00 2.1945546225745196e+00 2.9598004623845796e+01 0 0 0
79 3 -3.7997443823954791e-01 3.5076165436593549e+00 5.8054472572795914e+00 2.7288821211857144e+01 0 0 0
80 1 -4.9122825257355718e-01 3.3394499273751381e+00 4.5693353302889834e+00 2.9875817039930286e+01 0 0 0
81 1 6.1260015380325128e-01 3.8828834205971949e+00 4.6442360667759166e+00 3.1340414990350521e+01 0 0 0
82 3 -3.7997256575210941e-01 3.5076146848043592e+00 5.8054462142867580e+00 3.1907188328938613e+01 0 0 0
83 3 -2.1063229991019716e-01 5.2318381615190486e+00 3.3388523218300250e+00 2.9041458369718175e+01 0 0 0
84 1 -4.9122107550376359e-01 3.3394489966482159e+00 3.4306652778119666e+00 3.2184999291759304e+01 0 0 0
85 1 6.1259775756206158e-01 3.8828825693709028e+00 3.3557633041159902e+00 3.3649596902424172e+01 0 0 0
86 3 -2.1062879850741384e-01 5.2318354113739485e+00 3.3388462897688669e+00 3.3659823331292493e+01 0 0 0
87 3 -2.1062981856356211e-01 5.2318363505876224e+00 4.6611510265620719e+00 3.1350641957258393e+01 0 0 0
88 3 -3.7997220141672172e-01 3.5076124529302137e+00 2.1945534136855058e+00 3.4216370343414994e+01 0 0 0
89 2 1.9505869027087419e-01 2.2079424708554485e+00 4.5468856712031265e+00 2.5269489150458337e+01 0 0 0
90 2 2.7416927568350613e-01 3.6177516875255713e+00 5.5404348753928065e+00 2.4742241894508847e+01 0 0 0
91 2 2.7416981920140948e-01 3.6177466864530894e+00 2.4595652909337100e+00 2.7051426110502341e+01 0 0 0
92 2 1.9505886861173943e-01 2.2079425792056111e+00 3.4531213914493506e+00 2.7578672396168020e+01 0 0 0
93 2 1.9505867455940787e-01 2.2079415163738862e+00 4.5468800755435836e+00 2.9887854525347183e+01 0 0 0
94 2 2.7416958543569836e-01 3.6177452871587481e+00 5.5404366476125970e+00 2.9360608767089360e+01 0 0 0
95 2 1.9505810304563609e-01 2.2079403985312744e+00 3.4531184936856887e+00 3.2197036287512702e+01 0 0 0
96 2 2.7416883446127616e-01 3.6177457594189213e+00 2.4595644453721053e+00 3.1669790958658762e+01 0 0 0
97 1 -4.9122806462738594e-01 3.3394505116753512e+00 4.5693344888908651e+00 3.4494182025316285e+01 0 0 0
98 1 6.1261161233942807e-01 3.8828859155498057e+00 4.6442352933312163e+00 3.5958779361247920e+01 0 0 0
99 3 -2.1063354507282964e-01 5.2318386404589958e+00 4.6611475439329180e+00 3.5969004438702221e+01 0 0 0
100 1 -4.9122786663637547e-01 3.3394505934770593e+00 3.4306659170843283e+00 3.6803365530213085e+01 0 0 0
101 1 6.1259630632819295e-01 3.8828855940390956e+00 3.3557652521473043e+00 3.8267963068555055e+01 0 0 0
102 3 -3.7997153397449251e-01 3.5076197862015395e+00 2.1945537244941704e+00 3.8834735623225690e+01 0 0 0
103 3 -3.7997648730633948e-01 3.5076199809890434e+00 5.8054462877052506e+00 3.6525552581048913e+01 0 0 0
104 1 -4.9122184329115332e-01 3.3394495633067161e+00 4.5693340356882359e+00 3.9112548970150698e+01 0 0 0
105 1 6.1260213317386492e-01 3.8828834380655710e+00 4.6442348466273824e+00 4.0577146531986735e+01 0 0 0
106 3 -3.7997409433189921e-01 3.5076154799250636e+00 5.8054453475704779e+00 4.1143919457929769e+01 0 0 0
107 3 -2.1062856235862401e-01 5.2318383680893046e+00 3.3388534007126198e+00 3.8278188918377118e+01 0 0 0
108 1 -4.9123035113582153e-01 3.3394487037326526e+00 3.4306646929004403e+00 4.1421731720319350e+01 0 0 0
109 1 6.1260860789463523e-01 3.8828827744767298e+00 3.3557626208814786e+00 4.2886329497821158e+01 0 0 0
110 3 -2.1063277844139155e-01 5.2318354499503146e+00 3.3388458653122530e+00 4.2896555566884274e+01 0 0 0
111 3 -2.1063068091891829e-01 5.2318363677008293e+00 4.6611490561685391e+00 4.0587373248301667e+01 0 0 0
112 3 -3.7997571616960524e-01 3.5076126312031159e+00 2.1945527598160637e+00 4.3453102664676578e+01 0 0 0
113 2 1.9505909624233603e-01 2.2079420257058047e+00 4.5468813380466448e+00 3.4506220770203470e+01 0 0 0
114 2 2.7417005063835631e-01 3.6177476330350187e+00 5.5404351579888020e+00 3.3978973343453795e+01 0 0 0
115 2 2.7416954399134619e-01 3.6177459473058962e+00 2.4595642716931465e+00 3.6288158088355239e+01 0 0 0
116 2 1.9505876082820800e-01 2.2079421759403077e+00 3.4531216190410725e+00 3.6815404384514210e+01 0 0 0
117 2 1.9505789769368490e-01 2.2079410864926574e+00 4.5468775955896374e+00 3.9124587288143232e+01 0 0 0
118 2 2.7416894720512913e-01 3.6177446914821525e+00 5.5404359257648750e+00 3.8597341319053704e+01 0 0 0
119 2 1.9505880534833106e-01 2.2079402309455127e+00 3.4531189002804070e+00 4.1433769481784815e+01 0 0 0
120 2 2.7416953910569580e-01 3.6177451633416182e+00 2.4595636651958790e+00 4.0906523697755880e+01 0 0 0
121 1 -4.9122595049423173e-01 3.3394506336704914e+00 4.5693340481736113e+00 4.3730914610739170e+01 0 0 0
122 1 6.1259802779197914e-01 3.8828857360717532e+00 4.6442347352445887e+00 4.5195512054313923e+01 0 0 0
123 3 -2.1062883405361965e-01 5.2318386168661855e+00 4.6611482246353138e+00 4.5205737650409347e+01 0 0 0
124 1 -4.9122401774297975e-01 3.3394508943007146e+00 3.4306647072153615e+00 4.6040097231516462e+01 0 0 0
125 1 6.1260383081229297e-01 3.8828851255006751e+00 3.3557640739187442e+00 4.7504694786659293e+01 0 0 0
126 3 -3.7997451669870241e-01 3.5076180562016561e+00 2.1945531536087342e+00 4.8071467620223345e+01 0 0 0
127 3 -3.7997197469852872e-01 3.5076187285572620e+00 5.8054452986523009e+00 4.5762285693740722e+01 0 0 0
128 1 -4.9122693332149697e-01 3.3394497068838032e+00 4.5693337764104873e+00 4.8349280016575811e+01 0 0 0
129 1 6.1260258387173594e-01 3.8828825514764151e+00 4.6442340598919181e+00 4.9813878273241087e+01 0 0 0
130 3 -3.7997396122942106e-01 3.5076126220805675e+00 5.8054435946275005e+00 5.0380652012777922e+01 0 0 0
131 3 -2.1063143242147017e-01 5.2318378702093726e+00 3.3388510155955875e+00 4.7514921144413329e+01 0 0 0
132 1 -4.9122514066230150e-01 3.3394492813721852e+00 3.4306625050852690e+00 5.0658462246586041e+01 0 0 0
133 1 6.1260275834391009e-01 3.8828807635600771e+00 3.3557618895287078e+00 5.2123060957925652e+01 0 0 0
134 3 -2.1063100086877556e-01 5.2318335514877612e+00 3.3388414745605366e+00 5.2133288976825732e+01 0 0 0
135 3 -2.1063079105782323e-01 5.2318353164111251e+00 4.6611500559585899e+00 4.9824105758365988e+01 0 0 0
136 3 -3.7997397094435348e-01 3.5076071162099693e+00 2.1945535408082972e+00 5.2689834933557066e+01 0 0 0
137 2 1.9505857910179825e-01 2.2079421884870851e+00 4.5468813672636292e+00 4.3742952915805681e+01 0 0 0
138 2 2.7416938040229127e-01 3.6177476595635318e+00 5.5404345008821982e+00 4.3215705752195440e+01 0 0 0
139 2 2.7416949713238137e-01 3.6177466850429441e+00 2.4595631317064464e+00 4.5524889543102290e+01 0 0 0
140 2 1.9505851737740798e-01 2.2079424138242341e+00 3.4531198206322506e+00 4.6052136407069916e+01 0 0 0
141 2 1.9505875830089106e-01 2.2079411974967535e+00 4.5468792681702759e+00 4.8361316659994451e+01 0 0 0
142 2 2.7416954222670176e-01 3.6177467506023597e+00 5.5404351264668055e+00 4.7834072649218804e+01 0 0 0
143 2 1.9505874978437271e-01 2.2079407356912766e+00 3.4531140910036009e+00 5.0670497352752207e+01 0 0 0
144 2 2.7416950347566055e-01 3.6177488845313759e+00 2.4595621283812354e+00 5.0143254488760412e+01 0 0 0

Velocities

1 0.0000000000000000e+00 0.0000000000000000e+00 0.0000000000000000e+00
2 0.0000000000000000e+00 0.0000000000000000e+00 0.0000000000000000e+00
3 0.0000000000000000e+00 0.0000000000000000e+00 0.0000000000000000e+00
4 0.0000000000000000e+00 0.0000000000000000e+00 0.0000000000000000e+00
5 0.0000000000000000e+00 0.0000000000000000e+00 0.0000000000000000e+00
6 0.0000000000000000e+00 0.0000000000000000e+00 0.0000000000000000e+00
7 0.0000000000000000e+00 0.0000000000000000e+00 0.0000000000000000e+00
8 0.0000000000000000e+00 0.0000000000000000e+00 0.0000000000000000e+00
9 0.0000000000000000e+00 0.0000000000000000e+00 0.0000000000000000e+00
10 0.0000000000000000e+00 0.0000000000000000e+00 0.0000000000000000e+00
11 0.0000000000000000e+00 0.0000000000000000e+00 0.0000000000000000e+00
12 0.0000000000000000e+00 0.0000000000000000e+00 0.0000000000000000e+00
13 0.0000000000000000e+00 0.0000000000000000e+00 0.0000000000000000e+00
14 0.0000000000000000e+00 0.0000000000000000e+00 0.0000000000000000e+00
15 0.0000000000000000e+00 0.0000000000000000e+00 0.0000000000000000e+00
16 0.0000000000000000e+00 0.0000000000000000e+00 0.0000000000000000e+00
17 0.0000000000000000e+00 0.0000000000000000e+00 0.0000000000000000e+00
18 0.0000000000000000e+00 0.0000000000000000e+00 0.0000000000000000e+00
19 0.0000000000000000e+00 0.0000000000000000e+00 0.0000000000000000e+00
20 0.0000000000000000e+00 0.0000000000000000e+00 0.0000000000000000e+00
21 0.0000000000000000e+00 0.0000000000000000e+00 0.0000000000000000e+00
22 0.0000000000000000e+00 0.0000000000000000e+00 0.0000000000000000e+00
23 0.0000000000000000e+00 0.0000000000000000e+00 0.0000000000000000e+00
24 0.0000000000000000e+00 0.0000000000000000e+00 0.0000000000000000e+00
25 0.0000000000000000e+00 0.0000000000000000e+00 0.0000000000000000e+00
26 0.0000000000000000e+00 0.0000000000000000e+00 0.0000000000000000e+00
27 0.0000000000000000e+00 0.0000000000000000e+00 0.0000000000000000e+00
28 0.0000000000000000e+00 0.0000000000000000e+00 0.0000000000000000e+00
29 0.0000000000000000e+00 0.0000000000000000e+00 0.0000000000000000e+00
30 0.0000000000000000e+00 0.0000000000000000e+00 0.0000000000000000e+00
31 0.0000000000000000e+00 0.0000000000000000e+00 0.0000000000000000e+00
32 0.0000000000000000e+00 0.0000000000000000e+00 0.0000000000000000e+00
33 0.0000000000000000e+00 0.0000000000000000e+00 0.0000000000000000e+00
34 0.0000000000000000e+00 0.0000000000000000e+00 0.0000000000000000e+00
35 0.0000000000000000e+00 0.0000000000000000e+00 0.0000000000000000e+00
36 0.0000000000000000e+00 0.0000000000000000e+00 0.0000000000000000e+00
37 0.0000000000000000e+00 0.0000000000000000e+00 0.0000000000000000e+00
38 0.0000000000000000e+00 0.0000000000000000e+00 0.0000000000000000e+00
39 0.0000000000000000e+00 0.0000000000000000e+00 0.0000000000000000e+00
40 0.0000000000000000e+00 0.0000000000000000e+00 0.0000000000000000e+00
41 0.0000000000000000e+00 0.0000000000000000e+00 0.0000000000000000e+00
42 0.0000000000000000e+00 0.0000000000000000e+00 0.0000000000000000e+00
43 0.0000000000000000e+00 0.0000000000000000e+00 0.0000000000000000e+00
44 0.0000000000000000e+00 0.0000000000000000e+00 0.0000000000000000e+00
45 0.0000000000000000e+00 0.0000000000000000e+00 0.0000000000000000e+00
46 0.0000000000000000e+00 0.0000000000000000e+00 0.0000000000000000e+00
47 0.0000000000000000e+00 0.0000000000000000e+00 0.0000000000000000e+00
48 0.0000000000000000e+00 0.0000000000000000e+00 0.0000000000000000e+00
49 0.0000000000000000e+00 0.0000000000000000e+00 0.0000000000000000e+00
50 0.0000000000000000e+00 0.0000000000000000e+00 0.0000000000000000e+00
51 0.0000000000000000e+00 0.0000000000000000e+00 0.0000000000000000e+00
52 0.0000000000000000e+00 0.0000000000000000e+00 0.0000000000000000e+00
53 0.0000000000000000e+00 0.0000000000000000e+00 0.0000000000000000e+00
54 0.0000000000000000e+00 0.0000000000000000e+00 0.0000000000000000e+00
55 0.0000000000000000e+00 0.0000000000000000e+00 0.0000000000000000e+00
56 0.0000000000000000e+00 0.0000000000000000e+00 0.0000000000000000e+00
57 0.0000000000000000e+00 0.0000000000000000e+00 0.0000000000000000e+00
58 0.0000000000000000e+00 0.0000000000000000e+00 0.0000000000000000e+00
59 0.0000000000000000e+00 0.0000000000000000e+00 0.0000000000000000e+00
60 0.0000000000000000e+00 0.0000000000000000e+00 0.0000000000000000e+00
61 0.0000000000000000e+00 0.0000000000000000e+00 0.0000000000000000e+00
62 0.0000000000000000e+00 0.0000000000000000e+00 0.0000000000000000e+00
63 0.0000000000000000e+00 0.0000000000000000e+00 0.0000000000000000e+00
64 0.0000000000000000e+00 0.0000000000000000e+00 0.0000000000000000e+00
65 0.0000000000000000e+00 0.0000000000000000e+00 0.0000000000000000e+00
66 0.0000000000000000e+00 0.0000000000000000e+00 0.0000000000000000e+00
67 0.0000000000000000e+00 0.0000000000000000e+00 0.0000000000000000e+00
68 0.0000000000000000e+00 0.0000000000000000e+00 0.0000000000000000e+00
69 0.0000000000000000e+00 0.0000000000000000e+00 0.0000000000000000e+00
70 0.0000000000000000e+00 0.0000000000000000e+00 0.0000000000000000e+00
71 0.0000000000000000e+00 0.0000000000000000e+00 0.0000000000000000e+00
72 0.0000000000000000e+00 0.0000000000000000e+00 0.0000000000000000e+00
73 0.0000000000000000e+00 0.0000000000000000e+00 0.0000000000000000e+00
74 0.0000000000000000e+00 0.0000000000000000e+00 0.0000000000000000e+00
75 0.0000000000000000e+00 0.0000000000000000e+00 0.0000000000000000e+00
76 0.0000000000000000e+00 0.0000000000000000e+00 0.0000000000000000e+00
77 0.0000000000000000e+00 0.0000000000000000e+00 0.0000000000000000e+00
78 0.0000000000000000e+00 0.0000000000000000e+00 0.0000000000000000e+00
79 0.0000000000000000e+00 0.0000000000000000e+00 0.0000000000000000e+00
80 0.0000000000000000e+00 0.0000000000000000e+00 0.0000000000000000e+00
81 0.0000000000000000e+00 0.0000000000000000e+00 0.0000000000000000e+00
82 0.0000000000000000e+00 0.0000000000000000e+00 0.0000000000000000e+00
83 0.0000000000000000e+00 0.0000000000000000e+00 0.0000000000000000e+00
84 0.0000000000000000e+00 0.0000000000000000e+00 0.0000000000000000e+00
85 0.0000000000000000e+00 0.0000000000000000e+00 0.0000000000000000e+00
86 0.0000000000000000e+00 0.0000000000000000e+00 0.0000000000000000e+00
87 0.0000000000000000e+00 0.0000000000000000e+00 0.0000000000000000e+00
88 0.0000000000000000e+00 0.0000000000000000e+00 0.0000000000000000e+00
89 0.0000000000000000e+00 0.0000000000000000e+00 0.0000000000000000e+00
90 0.0000000000000000e+00 0.0000000000000000e+00 0.0000000000000000e+00
91 0.0000000000000000e+00 0.0000000000000000e+00 0.0000000000000000e+00
92 0.0000000000000000e+00 0.0000000000000000e+00 0.0000000000000000e+00
93 0.0000000000000000e+00 0.0000000000000000e+00 0.0000000000000000e+00
94 0.0000000000000000e+00 0.0000000000000000e+00 0.0000000000000000e+00
95 0.0000000000000000e+00 0.0000000000000000e+00 0.0000000000000000e+00
96 0.0000000000000000e+00 0.0000000000000000e+00 0.0000000000000000e+00
97 0.0000000000000000e+00 0.0000000000000000e+00 0.0000000000000000e+00
98 0.0000000000000000e+00 0.0000000000000000e+00 0.0000000000000000e+00
99 0.0000000000000000e+00 0.0000000000000000e+00 0.0000000000000000e+00
100 0.0000000000000000e+00 0.0000000000000000e+00 0.0000000000000000e+00
101 0.0000000000000000e+00 0.0000000000000000e+00 0.0000000000000000e+00
102 0.0000000000000000e+00 0.0000000000000000e+00 0.0000000000000000e+00
103 0.0000000000000000e+00 0.0000000000000000e+00 0.0000000000000000e+00
104 0.0000000000000000e+00 0.0000000000000000e+00 0.0000000000000000e+00
105 0.0000000000000000e+00 0.0000000000000000e+00 0.0000000000000000e+00
106 0.0000000000000000e+00 0.0000000000000000e+00 0.0000000000000000e+00
107 0.0000000000000000e+00 0.0000000000000000e+00 0.0000000000000000e+00
108 0.0000000000000000e+00 0.0000000000000000e+00 0.0000000000000000e+00
109 0.0000000000000000e+00 0.0000000000000000e+00 0.0000000000000000e+00
110 0.0000000000000000e+00 0.0000000000000000e+00 0.0000000000000000e+00
111 0.0000000000000000e+00 0.0000000000000000e+00 0.0000000000000000e+00
112 0.0000000000000000e+00 0.0000000000000000e+00 0.0000000000000000e+00
113 0.0000000000000000e+00 0.0000000000000000e+00 0.0000000000000000e+00
114 0.0000000000000000e+00 0.0000000000000000e+00 0.0000000000000000e+00
115 0.0000000000000000e+00 0.0000000000000000e+00 0.0000000000000000e+00
116 0.0000000000000000e+00 0.0000000000000000e+00 0.0000000000000000e+00
117 0.0000000000000000e+00 0.0000000000000000e+00 0.0000000000000000e+00
118 0.0000000000000000e+00 0.0000000000000000e+00 0.0000000000000000e+00
119 0.0000000000000000e+00 0.0000000000000000e+00 0.0000000000000000e+00
120 0.0000000000000000e+00 0.0000000000000000e+00 0.0000000000000000e+00
121 0.0000000000000000e+00 0.0000000000000000e+00 0.0000000000000000e+00
122 0.0000000000000000e+00 0.0000000000000000e+00 0.0000000000000000e+00
123 0.0000000000000000e+00 0.0000000000000000e+00 0.0000000000000000e+00
124 0.0000000000000000e+00 0.0000000000000000e+00 0.0000000000000000e+00
125 0.0000000000000000e+00 0.0000000000000000e+00 0.0000000000000000e+00
126 0.0000000000000000e+00 0.0000000000000000e+00 0.0000000000000000e+00
127 0.0000000000000000e+00 0.0000000000000000e+00 0.0000000000000000e+00
128 0.0000000000000000e+00 0.0000000000000000e+00 0.0000000000000000e+00
129 0.0000000000000000e+00 0.0000000000000000e+00 0.0000000000000000e+00
130 0.0000000000000000e+00 0.0000000000000000e+00 0.0000000000000000e+00
131 0.0000000000000000e+00 0.0000000000000000e+00 0.0000000000000000e+00
132 0.0000000000000000e+00 0.0000000000000000e+00 0.0000000000000000e+00
133 0.0000000000000000e+00 0.0000000000000000e+00 0.0000000000000000e+00
134 0.0000000000000000e+00 0.0000000000000000e+00 0.0000000000000000e+00
135 0.0000000000000000e+00 0.0000000000000000e+00 0.0000000000000000e+00
136 0.0000000000000000e+00 0.0000000000000000e+00 0.0000000000000000e+00
137 0.0000000000000000e+00 0.0000000000000000e+00 0.0000000000000000e+00
138 0.0000000000000000e+00 0.0000000000000000e+00 0.0000000000000000e+00
139 0.0000000000000000e+00 0.0000000000000000e+00 0.0000000000000000e+00
140 0.0000000000000000e+00 0.0000000000000000e+00 0.0000000000000000e+00
141 0.0000000000000000e+00 0.0000000000000000e+00 0.0000000000000000e+00
142 0.0000000000000000e+00 0.0000000000000000e+00 0.0000000000000000e+00
143 0.0000000000000000e+00 0.0000000000000000e+00 0.0000000000000000e+00
144 0.0000000000000000e+00 0.0000000000000000e+00 0.0000000000000000e+00
